
Host: HogEye

Timers On : Fri Feb  4 13:46:51 2022
Timers Off: Fri Feb  4 13:46:52 2022

Wall Time:        0.88 seconds

                                                       Time (seconds)
Module                                       User      System        Wall        Calls

--------------------------------------------------------------------------------------

**************************************************************************************

Host: HogEye

Timers On : Fri Feb  4 13:48:00 2022
Timers Off: Fri Feb  4 13:48:00 2022

Wall Time:        0.32 seconds

                                                       Time (seconds)
Module                                       User      System        Wall        Calls

--------------------------------------------------------------------------------------

**************************************************************************************

Host: HogEye

Timers On : Fri Feb  4 13:49:46 2022
Timers Off: Fri Feb  4 13:49:47 2022

Wall Time:        0.30 seconds

                                                       Time (seconds)
Module                                       User      System        Wall        Calls

--------------------------------------------------------------------------------------

**************************************************************************************

Host: HogEye

Timers On : Fri Feb  4 13:49:46 2022
Timers Off: Fri Feb  4 13:49:47 2022

Wall Time:        1.10 seconds

                                                       Time (seconds)
Module                                       User      System        Wall        Calls

--------------------------------------------------------------------------------------

**************************************************************************************

Host: HogEye

Timers On : Fri Feb  4 14:02:48 2022
Timers Off: Fri Feb  4 14:02:49 2022

Wall Time:        0.30 seconds

                                                       Time (seconds)
Module                                       User      System        Wall        Calls

--------------------------------------------------------------------------------------

**************************************************************************************

Host: HogEye

Timers On : Fri Feb  4 14:02:48 2022
Timers Off: Fri Feb  4 14:02:49 2022

Wall Time:        1.10 seconds

                                                       Time (seconds)
Module                                       User      System        Wall        Calls

--------------------------------------------------------------------------------------

**************************************************************************************

Host: HogEye

Timers On : Fri Feb  4 14:06:32 2022
Timers Off: Fri Feb  4 14:06:33 2022

Wall Time:        0.30 seconds

                                                       Time (seconds)
Module                                       User      System        Wall        Calls

--------------------------------------------------------------------------------------

**************************************************************************************

Host: HogEye

Timers On : Fri Feb  4 14:14:39 2022
Timers Off: Fri Feb  4 14:15:14 2022

Wall Time:       34.98 seconds

                                                       Time (seconds)
Module                                       User      System        Wall        Calls
DFH: sparsity prep                  :      0.000u      0.000s      0.196w     50 calls
Libint2ERI::Libint2ERI              :      0.000u      0.000s      2.116w   1150 calls
DFH: initialize()                   :      0.000u      0.000s      0.952w     50 calls
DFH: AO Construction                :      0.000u      0.000s      0.153w     50 calls
DFH: AO-Met. Contraction            :      0.000u      0.000s      0.100w     50 calls
HF: Form core H                     :      0.000u      0.000s      0.164w     50 calls
HF: Form S/X                        :      0.000u      0.000s      0.021w     50 calls
HF: Guess                           :      0.000u      0.000s      0.044w     50 calls
SAD Guess                           :      0.000u      0.000s      0.042w      1 calls
HF: Form G                          :      0.000u      0.000s     11.094w   1058 calls
JK: D                               :      0.000u      0.000s      0.008w   1058 calls
JK: USO2AO                          :      0.000u      0.000s      0.003w   1058 calls
JK: JK                              :      0.000u      0.000s     11.063w   1058 calls
DFH: compute_JK()                   :      0.000u      0.000s      0.359w    608 calls
DFH: Grabbing AOs                   :      0.000u      0.000s      0.000w    608 calls
DFH: compute_J                      :      0.000u      0.000s      0.044w    608 calls
DFH: compute_K                      :      0.000u      0.000s      0.141w    608 calls
JK: AO2USO                          :      0.000u      0.000s      0.000w   1058 calls
HF: Form F                          :      0.000u      0.000s      0.009w   1058 calls
HF: Form D                          :      0.000u      0.000s      0.006w   1058 calls
HF: DIIS                            :      0.000u      0.000s      0.826w   1057 calls
DIISManager::add_entry              :      0.000u      0.000s      0.015w   1008 calls
DIISManager::extrapolate            :      0.000u      0.000s      0.056w   1008 calls
bMatrix setup                       :      0.000u      0.000s      0.007w   1008 calls
bMatrix pseudoinverse               :      0.000u      0.000s      0.019w   1008 calls
New vector                          :      0.000u      0.000s      0.027w   1008 calls
HF: Form C                          :      0.000u      0.000s      0.663w   1057 calls
Grad: V T Perturb                   :      0.000u      0.000s      4.867w     50 calls
Grad: S                             :      0.000u      0.000s      0.006w     50 calls
Grad: JK                            :      0.000u      0.000s      3.358w     50 calls
Grad: XC                            :      0.000u      0.000s      0.000w     50 calls

--------------------------------------------------------------------------------------
DFH: sparsity prep                  :      0.000u      0.000s      0.196w     50 calls
| Libint2ERI::Libint2ERI            :      0.000u      0.000s      0.131w     50 calls
DFH: initialize()                   :      0.000u      0.000s      0.952w     50 calls
| Libint2ERI::Libint2ERI            :      0.000u      0.000s      0.109w    350 calls
| DFH: AO Construction              :      0.000u      0.000s      0.153w     50 calls
| DFH: AO-Met. Contraction          :      0.000u      0.000s      0.100w     50 calls
HF: Form core H                     :      0.000u      0.000s      0.164w     50 calls
HF: Form S/X                        :      0.000u      0.000s      0.021w     50 calls
HF: Guess                           :      0.000u      0.000s      0.044w     50 calls
| SAD Guess                         :      0.000u      0.000s      0.042w      1 calls
HF: Form G                          :      0.000u      0.000s     11.094w   1058 calls
| JK: D                             :      0.000u      0.000s      0.008w   1058 calls
| JK: USO2AO                        :      0.000u      0.000s      0.003w   1058 calls
| JK: JK                            :      0.000u      0.000s     11.063w   1058 calls
| | DFH: compute_JK()               :      0.000u      0.000s      0.359w    608 calls
| | | DFH: Grabbing AOs             :      0.000u      0.000s      0.000w    608 calls
| | | DFH: compute_J                :      0.000u      0.000s      0.044w    608 calls
| | | DFH: compute_K                :      0.000u      0.000s      0.141w    608 calls
| | Libint2ERI::Libint2ERI          :      0.000u      0.000s      1.102w    450 calls
| JK: AO2USO                        :      0.000u      0.000s      0.000w   1058 calls
HF: Form F                          :      0.000u      0.000s      0.009w   1058 calls
HF: Form D                          :      0.000u      0.000s      0.006w   1058 calls
HF: DIIS                            :      0.000u      0.000s      0.826w   1057 calls
| DIISManager::add_entry            :      0.000u      0.000s      0.015w   1008 calls
| DIISManager::extrapolate          :      0.000u      0.000s      0.056w   1008 calls
| | bMatrix setup                   :      0.000u      0.000s      0.007w   1008 calls
| | bMatrix pseudoinverse           :      0.000u      0.000s      0.019w   1008 calls
| | New vector                      :      0.000u      0.000s      0.027w   1008 calls
HF: Form C                          :      0.000u      0.000s      0.663w   1057 calls
Grad: V T Perturb                   :      0.000u      0.000s      4.867w     50 calls
Grad: S                             :      0.000u      0.000s      0.006w     50 calls
Grad: JK                            :      0.000u      0.000s      3.358w     50 calls
| Libint2ERI::Libint2ERI            :      0.000u      0.000s      0.773w    300 calls
Grad: XC                            :      0.000u      0.000s      0.000w     50 calls

**************************************************************************************

Host: HogEye

Timers On : Fri Feb  4 14:14:38 2022
Timers Off: Fri Feb  4 14:15:14 2022

Wall Time:       35.89 seconds

                                                       Time (seconds)
Module                                       User      System        Wall        Calls

--------------------------------------------------------------------------------------

**************************************************************************************

Host: HogEye

Timers On : Fri Feb  4 14:20:56 2022
Timers Off: Fri Feb  4 14:21:22 2022

Wall Time:       25.52 seconds

                                                       Time (seconds)
Module                                       User      System        Wall        Calls
DFH: sparsity prep                  :      0.000u      0.000s      0.127w     38 calls
Libint2ERI::Libint2ERI              :      0.000u      0.000s      1.475w    895 calls
DFH: initialize()                   :      0.000u      0.000s      0.656w     38 calls
DFH: AO Construction                :      0.000u      0.000s      0.095w     38 calls
DFH: AO-Met. Contraction            :      0.000u      0.000s      0.069w     38 calls
HF: Form core H                     :      0.000u      0.000s      0.119w     38 calls
HF: Form S/X                        :      0.000u      0.000s      0.015w     38 calls
HF: Guess                           :      0.000u      0.000s      0.110w     38 calls
SAD Guess                           :      0.000u      0.000s      0.107w      3 calls
HF: Form G                          :      0.000u      0.000s      7.047w    828 calls
JK: D                               :      0.000u      0.000s      0.007w    842 calls
JK: USO2AO                          :      0.000u      0.000s      0.003w    842 calls
JK: JK                              :      0.000u      0.000s      8.556w    842 calls
DFH: compute_JK()                   :      0.000u      0.000s      0.249w    486 calls
DFH: Grabbing AOs                   :      0.000u      0.000s      0.000w    486 calls
DFH: compute_J                      :      0.000u      0.000s      0.027w    486 calls
DFH: compute_K                      :      0.000u      0.000s      0.092w    486 calls
JK: AO2USO                          :      0.000u      0.000s      0.000w    842 calls
HF: Form F                          :      0.000u      0.000s      0.006w    828 calls
HF: Form D                          :      0.000u      0.000s      0.004w    828 calls
HF: DIIS                            :      0.000u      0.000s      0.572w    825 calls
DIISManager::add_entry              :      0.000u      0.000s      0.010w    790 calls
DIISManager::extrapolate            :      0.000u      0.000s      0.038w    790 calls
bMatrix setup                       :      0.000u      0.000s      0.005w    790 calls
bMatrix pseudoinverse               :      0.000u      0.000s      0.013w    790 calls
New vector                          :      0.000u      0.000s      0.019w    790 calls
HF: Form C                          :      0.000u      0.000s      0.456w    825 calls
Grad: V T Perturb                   :      0.000u      0.000s      3.277w     37 calls
Grad: S                             :      0.000u      0.000s      0.004w     37 calls
Grad: JK                            :      0.000u      0.000s      1.986w     37 calls
Grad: XC                            :      0.000u      0.000s      0.000w     37 calls
Hess: XC                            :      0.000u      0.000s      0.000w      1 calls
Hess: V                             :      0.000u      0.000s      0.212w      1 calls
Hess: T                             :      0.000u      0.000s      0.001w      1 calls
Hess: S                             :      0.000u      0.000s      0.000w      1 calls
Hess: JK                            :      0.000u      0.000s      0.235w      1 calls

--------------------------------------------------------------------------------------
DFH: sparsity prep                  :      0.000u      0.000s      0.127w     38 calls
| Libint2ERI::Libint2ERI            :      0.000u      0.000s      0.082w     38 calls
DFH: initialize()                   :      0.000u      0.000s      0.656w     38 calls
| Libint2ERI::Libint2ERI            :      0.000u      0.000s      0.073w    266 calls
| DFH: AO Construction              :      0.000u      0.000s      0.095w     38 calls
| DFH: AO-Met. Contraction          :      0.000u      0.000s      0.069w     38 calls
HF: Form core H                     :      0.000u      0.000s      0.119w     38 calls
HF: Form S/X                        :      0.000u      0.000s      0.015w     38 calls
HF: Guess                           :      0.000u      0.000s      0.110w     38 calls
| SAD Guess                         :      0.000u      0.000s      0.107w      3 calls
HF: Form G                          :      0.000u      0.000s      7.047w    828 calls
| JK: D                             :      0.000u      0.000s      0.006w    828 calls
| JK: USO2AO                        :      0.000u      0.000s      0.002w    828 calls
| JK: JK                            :      0.000u      0.000s      7.026w    828 calls
| | DFH: compute_JK()               :      0.000u      0.000s      0.249w    486 calls
| | | DFH: Grabbing AOs             :      0.000u      0.000s      0.000w    486 calls
| | | DFH: compute_J                :      0.000u      0.000s      0.027w    486 calls
| | | DFH: compute_K                :      0.000u      0.000s      0.092w    486 calls
| | Libint2ERI::Libint2ERI          :      0.000u      0.000s      0.738w    342 calls
| JK: AO2USO                        :      0.000u      0.000s      0.000w    828 calls
HF: Form F                          :      0.000u      0.000s      0.006w    828 calls
HF: Form D                          :      0.000u      0.000s      0.004w    828 calls
HF: DIIS                            :      0.000u      0.000s      0.572w    825 calls
| DIISManager::add_entry            :      0.000u      0.000s      0.010w    790 calls
| DIISManager::extrapolate          :      0.000u      0.000s      0.038w    790 calls
| | bMatrix setup                   :      0.000u      0.000s      0.005w    790 calls
| | bMatrix pseudoinverse           :      0.000u      0.000s      0.013w    790 calls
| | New vector                      :      0.000u      0.000s      0.019w    790 calls
HF: Form C                          :      0.000u      0.000s      0.456w    825 calls
Grad: V T Perturb                   :      0.000u      0.000s      3.277w     37 calls
Grad: S                             :      0.000u      0.000s      0.004w     37 calls
Grad: JK                            :      0.000u      0.000s      1.986w     37 calls
| Libint2ERI::Libint2ERI            :      0.000u      0.000s      0.522w    222 calls
Grad: XC                            :      0.000u      0.000s      0.000w     37 calls
Hess: XC                            :      0.000u      0.000s      0.000w      1 calls
Hess: V                             :      0.000u      0.000s      0.212w      1 calls
Hess: T                             :      0.000u      0.000s      0.001w      1 calls
Hess: S                             :      0.000u      0.000s      0.000w      1 calls
Hess: JK                            :      0.000u      0.000s      0.235w      1 calls
| Libint2ERI::Libint2ERI            :      0.000u      0.000s      0.015w      6 calls
Libint2ERI::Libint2ERI              :      0.000u      0.000s      0.016w      7 calls
JK: D                               :      0.000u      0.000s      0.001w     14 calls
JK: USO2AO                          :      0.000u      0.000s      0.001w     14 calls
JK: JK                              :      0.000u      0.000s      1.530w     14 calls
| Libint2ERI::Libint2ERI            :      0.000u      0.000s      0.028w     14 calls
JK: AO2USO                          :      0.000u      0.000s      0.000w     14 calls

**************************************************************************************

Host: HogEye

Timers On : Fri Feb  4 14:23:09 2022
Timers Off: Fri Feb  4 14:23:40 2022

Wall Time:       30.96 seconds

                                                       Time (seconds)
Module                                       User      System        Wall        Calls
DFH: sparsity prep                  :      0.000u      0.000s      0.167w     50 calls
Libint2ERI::Libint2ERI              :      0.000u      0.000s      1.881w   1150 calls
DFH: initialize()                   :      0.000u      0.000s      0.866w     50 calls
DFH: AO Construction                :      0.000u      0.000s      0.128w     50 calls
DFH: AO-Met. Contraction            :      0.000u      0.000s      0.091w     50 calls
HF: Form core H                     :      0.000u      0.000s      0.144w     50 calls
HF: Form S/X                        :      0.000u      0.000s      0.020w     50 calls
HF: Guess                           :      0.000u      0.000s      0.039w     50 calls
SAD Guess                           :      0.000u      0.000s      0.037w      1 calls
HF: Form G                          :      0.000u      0.000s      9.222w   1053 calls
JK: D                               :      0.000u      0.000s      0.008w   1053 calls
JK: USO2AO                          :      0.000u      0.000s      0.003w   1053 calls
JK: JK                              :      0.000u      0.000s      9.195w   1053 calls
DFH: compute_JK()                   :      0.000u      0.000s      0.307w    603 calls
DFH: Grabbing AOs                   :      0.000u      0.000s      0.000w    603 calls
DFH: compute_J                      :      0.000u      0.000s      0.033w    603 calls
DFH: compute_K                      :      0.000u      0.000s      0.114w    603 calls
JK: AO2USO                          :      0.000u      0.000s      0.000w   1053 calls
HF: Form F                          :      0.000u      0.000s      0.007w   1053 calls
HF: Form D                          :      0.000u      0.000s      0.005w   1053 calls
HF: DIIS                            :      0.000u      0.000s      0.756w   1052 calls
DIISManager::add_entry              :      0.000u      0.000s      0.013w   1003 calls
DIISManager::extrapolate            :      0.000u      0.000s      0.049w   1003 calls
bMatrix setup                       :      0.000u      0.000s      0.006w   1003 calls
bMatrix pseudoinverse               :      0.000u      0.000s      0.017w   1003 calls
New vector                          :      0.000u      0.000s      0.024w   1003 calls
HF: Form C                          :      0.000u      0.000s      0.602w   1052 calls
Grad: V T Perturb                   :      0.000u      0.000s      4.459w     50 calls
Grad: S                             :      0.000u      0.000s      0.005w     50 calls
Grad: JK                            :      0.000u      0.000s      2.695w     50 calls
Grad: XC                            :      0.000u      0.000s      0.000w     50 calls

--------------------------------------------------------------------------------------
DFH: sparsity prep                  :      0.000u      0.000s      0.167w     50 calls
| Libint2ERI::Libint2ERI            :      0.000u      0.000s      0.108w     50 calls
DFH: initialize()                   :      0.000u      0.000s      0.866w     50 calls
| Libint2ERI::Libint2ERI            :      0.000u      0.000s      0.094w    350 calls
| DFH: AO Construction              :      0.000u      0.000s      0.128w     50 calls
| DFH: AO-Met. Contraction          :      0.000u      0.000s      0.091w     50 calls
HF: Form core H                     :      0.000u      0.000s      0.144w     50 calls
HF: Form S/X                        :      0.000u      0.000s      0.020w     50 calls
HF: Guess                           :      0.000u      0.000s      0.039w     50 calls
| SAD Guess                         :      0.000u      0.000s      0.037w      1 calls
HF: Form G                          :      0.000u      0.000s      9.222w   1053 calls
| JK: D                             :      0.000u      0.000s      0.008w   1053 calls
| JK: USO2AO                        :      0.000u      0.000s      0.003w   1053 calls
| JK: JK                            :      0.000u      0.000s      9.195w   1053 calls
| | DFH: compute_JK()               :      0.000u      0.000s      0.307w    603 calls
| | | DFH: Grabbing AOs             :      0.000u      0.000s      0.000w    603 calls
| | | DFH: compute_J                :      0.000u      0.000s      0.033w    603 calls
| | | DFH: compute_K                :      0.000u      0.000s      0.114w    603 calls
| | Libint2ERI::Libint2ERI          :      0.000u      0.000s      0.975w    450 calls
| JK: AO2USO                        :      0.000u      0.000s      0.000w   1053 calls
HF: Form F                          :      0.000u      0.000s      0.007w   1053 calls
HF: Form D                          :      0.000u      0.000s      0.005w   1053 calls
HF: DIIS                            :      0.000u      0.000s      0.756w   1052 calls
| DIISManager::add_entry            :      0.000u      0.000s      0.013w   1003 calls
| DIISManager::extrapolate          :      0.000u      0.000s      0.049w   1003 calls
| | bMatrix setup                   :      0.000u      0.000s      0.006w   1003 calls
| | bMatrix pseudoinverse           :      0.000u      0.000s      0.017w   1003 calls
| | New vector                      :      0.000u      0.000s      0.024w   1003 calls
HF: Form C                          :      0.000u      0.000s      0.602w   1052 calls
Grad: V T Perturb                   :      0.000u      0.000s      4.459w     50 calls
Grad: S                             :      0.000u      0.000s      0.005w     50 calls
Grad: JK                            :      0.000u      0.000s      2.695w     50 calls
| Libint2ERI::Libint2ERI            :      0.000u      0.000s      0.705w    300 calls
Grad: XC                            :      0.000u      0.000s      0.000w     50 calls

**************************************************************************************

Host: HogEye

Timers On : Fri Feb  4 14:23:09 2022
Timers Off: Fri Feb  4 14:23:40 2022

Wall Time:       31.65 seconds

                                                       Time (seconds)
Module                                       User      System        Wall        Calls

--------------------------------------------------------------------------------------

**************************************************************************************

Host: HogEye

Timers On : Fri Feb  4 14:28:05 2022
Timers Off: Fri Feb  4 14:28:17 2022

Wall Time:       12.20 seconds

                                                       Time (seconds)
Module                                       User      System        Wall        Calls
DFH: sparsity prep                  :      0.000u      0.000s      0.056w     16 calls
Libint2ERI::Libint2ERI              :      0.000u      0.000s      0.646w    390 calls
DFH: initialize()                   :      0.000u      0.000s      0.283w     16 calls
DFH: AO Construction                :      0.000u      0.000s      0.039w     16 calls
DFH: AO-Met. Contraction            :      0.000u      0.000s      0.029w     16 calls
HF: Form core H                     :      0.000u      0.000s      0.049w     16 calls
HF: Form S/X                        :      0.000u      0.000s      0.007w     16 calls
HF: Guess                           :      0.000u      0.000s      0.109w     16 calls
SAD Guess                           :      0.000u      0.000s      0.107w      3 calls
HF: Form G                          :      0.000u      0.000s      3.011w    360 calls
JK: D                               :      0.000u      0.000s      0.003w    374 calls
JK: USO2AO                          :      0.000u      0.000s      0.002w    374 calls
JK: JK                              :      0.000u      0.000s      4.465w    374 calls
DFH: compute_JK()                   :      0.000u      0.000s      0.109w    215 calls
DFH: Grabbing AOs                   :      0.000u      0.000s      0.000w    215 calls
DFH: compute_J                      :      0.000u      0.000s      0.012w    215 calls
DFH: compute_K                      :      0.000u      0.000s      0.040w    215 calls
JK: AO2USO                          :      0.000u      0.000s      0.000w    374 calls
HF: Form F                          :      0.000u      0.000s      0.003w    360 calls
HF: Form D                          :      0.000u      0.000s      0.002w    360 calls
HF: DIIS                            :      0.000u      0.000s      0.245w    357 calls
DIISManager::add_entry              :      0.000u      0.000s      0.004w    344 calls
DIISManager::extrapolate            :      0.000u      0.000s      0.017w    344 calls
bMatrix setup                       :      0.000u      0.000s      0.002w    344 calls
bMatrix pseudoinverse               :      0.000u      0.000s      0.006w    344 calls
New vector                          :      0.000u      0.000s      0.008w    344 calls
HF: Form C                          :      0.000u      0.000s      0.193w    357 calls
Grad: V T Perturb                   :      0.000u      0.000s      1.460w     15 calls
Grad: S                             :      0.000u      0.000s      0.002w     15 calls
Grad: JK                            :      0.000u      0.000s      0.800w     15 calls
Grad: XC                            :      0.000u      0.000s      0.000w     15 calls
Hess: XC                            :      0.000u      0.000s      0.000w      1 calls
Hess: V                             :      0.000u      0.000s      0.202w      1 calls
Hess: T                             :      0.000u      0.000s      0.001w      1 calls
Hess: S                             :      0.000u      0.000s      0.000w      1 calls
Hess: JK                            :      0.000u      0.000s      0.228w      1 calls

--------------------------------------------------------------------------------------
DFH: sparsity prep                  :      0.000u      0.000s      0.056w     16 calls
| Libint2ERI::Libint2ERI            :      0.000u      0.000s      0.036w     16 calls
DFH: initialize()                   :      0.000u      0.000s      0.283w     16 calls
| Libint2ERI::Libint2ERI            :      0.000u      0.000s      0.031w    112 calls
| DFH: AO Construction              :      0.000u      0.000s      0.039w     16 calls
| DFH: AO-Met. Contraction          :      0.000u      0.000s      0.029w     16 calls
HF: Form core H                     :      0.000u      0.000s      0.049w     16 calls
HF: Form S/X                        :      0.000u      0.000s      0.007w     16 calls
HF: Guess                           :      0.000u      0.000s      0.109w     16 calls
| SAD Guess                         :      0.000u      0.000s      0.107w      3 calls
HF: Form G                          :      0.000u      0.000s      3.011w    360 calls
| JK: D                             :      0.000u      0.000s      0.002w    360 calls
| JK: USO2AO                        :      0.000u      0.000s      0.001w    360 calls
| JK: JK                            :      0.000u      0.000s      3.002w    360 calls
| | DFH: compute_JK()               :      0.000u      0.000s      0.109w    215 calls
| | | DFH: Grabbing AOs             :      0.000u      0.000s      0.000w    215 calls
| | | DFH: compute_J                :      0.000u      0.000s      0.012w    215 calls
| | | DFH: compute_K                :      0.000u      0.000s      0.040w    215 calls
| | Libint2ERI::Libint2ERI          :      0.000u      0.000s      0.305w    145 calls
| JK: AO2USO                        :      0.000u      0.000s      0.000w    360 calls
HF: Form F                          :      0.000u      0.000s      0.003w    360 calls
HF: Form D                          :      0.000u      0.000s      0.002w    360 calls
HF: DIIS                            :      0.000u      0.000s      0.245w    357 calls
| DIISManager::add_entry            :      0.000u      0.000s      0.004w    344 calls
| DIISManager::extrapolate          :      0.000u      0.000s      0.017w    344 calls
| | bMatrix setup                   :      0.000u      0.000s      0.002w    344 calls
| | bMatrix pseudoinverse           :      0.000u      0.000s      0.006w    344 calls
| | New vector                      :      0.000u      0.000s      0.008w    344 calls
HF: Form C                          :      0.000u      0.000s      0.193w    357 calls
Grad: V T Perturb                   :      0.000u      0.000s      1.460w     15 calls
Grad: S                             :      0.000u      0.000s      0.002w     15 calls
Grad: JK                            :      0.000u      0.000s      0.800w     15 calls
| Libint2ERI::Libint2ERI            :      0.000u      0.000s      0.214w     90 calls
Grad: XC                            :      0.000u      0.000s      0.000w     15 calls
Hess: XC                            :      0.000u      0.000s      0.000w      1 calls
Hess: V                             :      0.000u      0.000s      0.202w      1 calls
Hess: T                             :      0.000u      0.000s      0.001w      1 calls
Hess: S                             :      0.000u      0.000s      0.000w      1 calls
Hess: JK                            :      0.000u      0.000s      0.228w      1 calls
| Libint2ERI::Libint2ERI            :      0.000u      0.000s      0.016w      6 calls
Libint2ERI::Libint2ERI              :      0.000u      0.000s      0.015w      7 calls
JK: D                               :      0.000u      0.000s      0.001w     14 calls
JK: USO2AO                          :      0.000u      0.000s      0.001w     14 calls
JK: JK                              :      0.000u      0.000s      1.462w     14 calls
| Libint2ERI::Libint2ERI            :      0.000u      0.000s      0.028w     14 calls
JK: AO2USO                          :      0.000u      0.000s      0.000w     14 calls

**************************************************************************************

Host: HogEye

Timers On : Fri Feb  4 14:28:04 2022
Timers Off: Fri Feb  4 14:28:17 2022

Wall Time:       12.87 seconds

                                                       Time (seconds)
Module                                       User      System        Wall        Calls

--------------------------------------------------------------------------------------

**************************************************************************************

Host: HogEye

Timers On : Fri Feb  4 14:29:45 2022
Timers Off: Fri Feb  4 14:29:57 2022

Wall Time:       12.41 seconds

                                                       Time (seconds)
Module                                       User      System        Wall        Calls
DFH: sparsity prep                  :      0.000u      0.000s      0.056w     16 calls
Libint2ERI::Libint2ERI              :      0.000u      0.000s      0.663w    390 calls
DFH: initialize()                   :      0.000u      0.000s      0.288w     16 calls
DFH: AO Construction                :      0.000u      0.000s      0.043w     16 calls
DFH: AO-Met. Contraction            :      0.000u      0.000s      0.029w     16 calls
HF: Form core H                     :      0.000u      0.000s      0.050w     16 calls
HF: Form S/X                        :      0.000u      0.000s      0.006w     16 calls
HF: Guess                           :      0.000u      0.000s      0.110w     16 calls
SAD Guess                           :      0.000u      0.000s      0.107w      3 calls
HF: Form G                          :      0.000u      0.000s      3.109w    360 calls
JK: D                               :      0.000u      0.000s      0.004w    374 calls
JK: USO2AO                          :      0.000u      0.000s      0.002w    374 calls
JK: JK                              :      0.000u      0.000s      4.713w    374 calls
DFH: compute_JK()                   :      0.000u      0.000s      0.114w    215 calls
DFH: Grabbing AOs                   :      0.000u      0.000s      0.000w    215 calls
DFH: compute_J                      :      0.000u      0.000s      0.013w    215 calls
DFH: compute_K                      :      0.000u      0.000s      0.042w    215 calls
JK: AO2USO                          :      0.000u      0.000s      0.000w    374 calls
HF: Form F                          :      0.000u      0.000s      0.003w    360 calls
HF: Form D                          :      0.000u      0.000s      0.002w    360 calls
HF: DIIS                            :      0.000u      0.000s      0.250w    357 calls
DIISManager::add_entry              :      0.000u      0.000s      0.004w    344 calls
DIISManager::extrapolate            :      0.000u      0.000s      0.017w    344 calls
bMatrix setup                       :      0.000u      0.000s      0.002w    344 calls
bMatrix pseudoinverse               :      0.000u      0.000s      0.006w    344 calls
New vector                          :      0.000u      0.000s      0.008w    344 calls
HF: Form C                          :      0.000u      0.000s      0.197w    357 calls
Grad: V T Perturb                   :      0.000u      0.000s      1.478w     15 calls
Grad: S                             :      0.000u      0.000s      0.002w     15 calls
Grad: JK                            :      0.000u      0.000s      0.832w     15 calls
Grad: XC                            :      0.000u      0.000s      0.000w     15 calls
Hess: XC                            :      0.000u      0.000s      0.000w      1 calls
Hess: V                             :      0.000u      0.000s      0.206w      1 calls
Hess: T                             :      0.000u      0.000s      0.001w      1 calls
Hess: S                             :      0.000u      0.000s      0.000w      1 calls
Hess: JK                            :      0.000u      0.000s      0.228w      1 calls

--------------------------------------------------------------------------------------
DFH: sparsity prep                  :      0.000u      0.000s      0.056w     16 calls
| Libint2ERI::Libint2ERI            :      0.000u      0.000s      0.036w     16 calls
DFH: initialize()                   :      0.000u      0.000s      0.288w     16 calls
| Libint2ERI::Libint2ERI            :      0.000u      0.000s      0.031w    112 calls
| DFH: AO Construction              :      0.000u      0.000s      0.043w     16 calls
| DFH: AO-Met. Contraction          :      0.000u      0.000s      0.029w     16 calls
HF: Form core H                     :      0.000u      0.000s      0.050w     16 calls
HF: Form S/X                        :      0.000u      0.000s      0.006w     16 calls
HF: Guess                           :      0.000u      0.000s      0.110w     16 calls
| SAD Guess                         :      0.000u      0.000s      0.107w      3 calls
HF: Form G                          :      0.000u      0.000s      3.109w    360 calls
| JK: D                             :      0.000u      0.000s      0.003w    360 calls
| JK: USO2AO                        :      0.000u      0.000s      0.001w    360 calls
| JK: JK                            :      0.000u      0.000s      3.100w    360 calls
| | DFH: compute_JK()               :      0.000u      0.000s      0.114w    215 calls
| | | DFH: Grabbing AOs             :      0.000u      0.000s      0.000w    215 calls
| | | DFH: compute_J                :      0.000u      0.000s      0.013w    215 calls
| | | DFH: compute_K                :      0.000u      0.000s      0.042w    215 calls
| | Libint2ERI::Libint2ERI          :      0.000u      0.000s      0.315w    145 calls
| JK: AO2USO                        :      0.000u      0.000s      0.000w    360 calls
HF: Form F                          :      0.000u      0.000s      0.003w    360 calls
HF: Form D                          :      0.000u      0.000s      0.002w    360 calls
HF: DIIS                            :      0.000u      0.000s      0.250w    357 calls
| DIISManager::add_entry            :      0.000u      0.000s      0.004w    344 calls
| DIISManager::extrapolate          :      0.000u      0.000s      0.017w    344 calls
| | bMatrix setup                   :      0.000u      0.000s      0.002w    344 calls
| | bMatrix pseudoinverse           :      0.000u      0.000s      0.006w    344 calls
| | New vector                      :      0.000u      0.000s      0.008w    344 calls
HF: Form C                          :      0.000u      0.000s      0.197w    357 calls
Grad: V T Perturb                   :      0.000u      0.000s      1.478w     15 calls
Grad: S                             :      0.000u      0.000s      0.002w     15 calls
Grad: JK                            :      0.000u      0.000s      0.832w     15 calls
| Libint2ERI::Libint2ERI            :      0.000u      0.000s      0.219w     90 calls
Grad: XC                            :      0.000u      0.000s      0.000w     15 calls
Hess: XC                            :      0.000u      0.000s      0.000w      1 calls
Hess: V                             :      0.000u      0.000s      0.206w      1 calls
Hess: T                             :      0.000u      0.000s      0.001w      1 calls
Hess: S                             :      0.000u      0.000s      0.000w      1 calls
Hess: JK                            :      0.000u      0.000s      0.228w      1 calls
| Libint2ERI::Libint2ERI            :      0.000u      0.000s      0.015w      6 calls
Libint2ERI::Libint2ERI              :      0.000u      0.000s      0.016w      7 calls
JK: D                               :      0.000u      0.000s      0.001w     14 calls
JK: USO2AO                          :      0.000u      0.000s      0.002w     14 calls
JK: JK                              :      0.000u      0.000s      1.613w     14 calls
| Libint2ERI::Libint2ERI            :      0.000u      0.000s      0.030w     14 calls
JK: AO2USO                          :      0.000u      0.000s      0.000w     14 calls

**************************************************************************************

Host: HogEye

Timers On : Fri Feb  4 14:29:44 2022
Timers Off: Fri Feb  4 14:29:58 2022

Wall Time:       13.29 seconds

                                                       Time (seconds)
Module                                       User      System        Wall        Calls

--------------------------------------------------------------------------------------

**************************************************************************************

Host: HogEye

Timers On : Fri Feb  4 14:37:29 2022
Timers Off: Fri Feb  4 15:08:41 2022

Wall Time:     1872.14 seconds

                                                       Time (seconds)
Module                                       User      System        Wall        Calls

--------------------------------------------------------------------------------------

**************************************************************************************

Host: HogEye

Timers On : Fri Feb  4 15:09:47 2022
Timers Off: Fri Feb  4 15:09:48 2022

Wall Time:        0.33 seconds

                                                       Time (seconds)
Module                                       User      System        Wall        Calls

--------------------------------------------------------------------------------------

**************************************************************************************

Host: HogEye

Timers On : Fri Feb  4 15:38:11 2022
Timers Off: Fri Feb  4 15:38:11 2022

Wall Time:        0.32 seconds

                                                       Time (seconds)
Module                                       User      System        Wall        Calls

--------------------------------------------------------------------------------------

**************************************************************************************

Host: HogEye

Timers On : Fri Feb  4 15:41:15 2022
Timers Off: Fri Feb  4 15:41:15 2022

Wall Time:        0.31 seconds

                                                       Time (seconds)
Module                                       User      System        Wall        Calls

--------------------------------------------------------------------------------------

**************************************************************************************

Host: HogEye

Timers On : Fri Feb  4 15:43:13 2022
Timers Off: Fri Feb  4 15:43:14 2022

Wall Time:        0.33 seconds

                                                       Time (seconds)
Module                                       User      System        Wall        Calls

--------------------------------------------------------------------------------------

**************************************************************************************

Host: HogEye

Timers On : Fri Feb  4 15:44:34 2022
Timers Off: Fri Feb  4 15:44:34 2022

Wall Time:        0.33 seconds

                                                       Time (seconds)
Module                                       User      System        Wall        Calls

--------------------------------------------------------------------------------------

**************************************************************************************

Host: HogEye

Timers On : Fri Feb  4 15:48:55 2022
Timers Off: Fri Feb  4 15:48:55 2022

Wall Time:        0.33 seconds

                                                       Time (seconds)
Module                                       User      System        Wall        Calls

--------------------------------------------------------------------------------------

**************************************************************************************

Host: HogEye

Timers On : Fri Feb  4 15:49:58 2022
Timers Off: Fri Feb  4 15:49:59 2022

Wall Time:        0.33 seconds

                                                       Time (seconds)
Module                                       User      System        Wall        Calls

--------------------------------------------------------------------------------------

**************************************************************************************

Host: HogEye

Timers On : Fri Feb  4 15:51:10 2022
Timers Off: Fri Feb  4 15:51:10 2022

Wall Time:        0.36 seconds

                                                       Time (seconds)
Module                                       User      System        Wall        Calls

--------------------------------------------------------------------------------------

**************************************************************************************

Host: HogEye

Timers On : Mon Feb  7 16:07:36 2022
Timers Off: Mon Feb  7 16:07:48 2022

Wall Time:       12.67 seconds

                                                       Time (seconds)
Module                                       User      System        Wall        Calls

--------------------------------------------------------------------------------------

**************************************************************************************

Host: HogEye

Timers On : Mon Feb  7 16:40:12 2022
Timers Off: Mon Feb  7 16:40:13 2022

Wall Time:        0.47 seconds

                                                       Time (seconds)
Module                                       User      System        Wall        Calls

--------------------------------------------------------------------------------------

**************************************************************************************

Host: HogEye

Timers On : Mon Feb  7 16:47:45 2022
Timers Off: Mon Feb  7 16:48:03 2022

Wall Time:       18.15 seconds

                                                       Time (seconds)
Module                                       User      System        Wall        Calls
DFH: sparsity prep                  :      0.000u      0.000s      0.089w     16 calls
Libint2ERI::Libint2ERI              :      0.000u      0.000s      0.908w    390 calls
DFH: initialize()                   :      0.000u      0.000s      0.470w     16 calls
DFH: AO Construction                :      0.000u      0.000s      0.081w     16 calls
DFH: AO-Met. Contraction            :      0.000u      0.000s      0.045w     16 calls
HF: Form core H                     :      0.000u      0.000s      0.079w     16 calls
HF: Form S/X                        :      0.000u      0.000s      0.011w     16 calls
HF: Guess                           :      0.000u      0.000s      0.160w     16 calls
SAD Guess                           :      0.000u      0.000s      0.156w      3 calls
HF: Form G                          :      0.000u      0.000s      4.624w    360 calls
JK: D                               :      0.000u      0.000s      0.005w    374 calls
JK: USO2AO                          :      0.000u      0.000s      0.003w    374 calls
JK: JK                              :      0.000u      0.000s      6.918w    374 calls
DFH: compute_JK()                   :      0.000u      0.000s      0.184w    215 calls
DFH: Grabbing AOs                   :      0.000u      0.000s      0.000w    215 calls
DFH: compute_J                      :      0.000u      0.000s      0.024w    215 calls
DFH: compute_K                      :      0.000u      0.000s      0.094w    215 calls
JK: AO2USO                          :      0.000u      0.000s      0.000w    374 calls
HF: Form F                          :      0.000u      0.000s      0.004w    360 calls
HF: Form D                          :      0.000u      0.000s      0.003w    360 calls
HF: DIIS                            :      0.000u      0.000s      0.357w    357 calls
DIISManager::add_entry              :      0.000u      0.000s      0.006w    344 calls
DIISManager::extrapolate            :      0.000u      0.000s      0.025w    344 calls
bMatrix setup                       :      0.000u      0.000s      0.003w    344 calls
bMatrix pseudoinverse               :      0.000u      0.000s      0.008w    344 calls
New vector                          :      0.000u      0.000s      0.012w    344 calls
HF: Form C                          :      0.000u      0.000s      0.289w    357 calls
Grad: V T Perturb                   :      0.000u      0.000s      1.950w     15 calls
Grad: S                             :      0.000u      0.000s      0.003w     15 calls
Grad: JK                            :      0.000u      0.000s      1.180w     15 calls
Grad: XC                            :      0.000u      0.000s      0.000w     15 calls
Hess: XC                            :      0.000u      0.000s      0.000w      1 calls
Hess: V                             :      0.000u      0.000s      0.281w      1 calls
Hess: T                             :      0.000u      0.000s      0.001w      1 calls
Hess: S                             :      0.000u      0.000s      0.000w      1 calls
Hess: JK                            :      0.000u      0.000s      0.356w      1 calls

--------------------------------------------------------------------------------------
DFH: sparsity prep                  :      0.000u      0.000s      0.089w     16 calls
| Libint2ERI::Libint2ERI            :      0.000u      0.000s      0.063w     16 calls
DFH: initialize()                   :      0.000u      0.000s      0.470w     16 calls
| Libint2ERI::Libint2ERI            :      0.000u      0.000s      0.043w    112 calls
| DFH: AO Construction              :      0.000u      0.000s      0.081w     16 calls
| DFH: AO-Met. Contraction          :      0.000u      0.000s      0.045w     16 calls
HF: Form core H                     :      0.000u      0.000s      0.079w     16 calls
HF: Form S/X                        :      0.000u      0.000s      0.011w     16 calls
HF: Guess                           :      0.000u      0.000s      0.160w     16 calls
| SAD Guess                         :      0.000u      0.000s      0.156w      3 calls
HF: Form G                          :      0.000u      0.000s      4.624w    360 calls
| JK: D                             :      0.000u      0.000s      0.004w    360 calls
| JK: USO2AO                        :      0.000u      0.000s      0.001w    360 calls
| JK: JK                            :      0.000u      0.000s      4.610w    360 calls
| | DFH: compute_JK()               :      0.000u      0.000s      0.184w    215 calls
| | | DFH: Grabbing AOs             :      0.000u      0.000s      0.000w    215 calls
| | | DFH: compute_J                :      0.000u      0.000s      0.024w    215 calls
| | | DFH: compute_K                :      0.000u      0.000s      0.094w    215 calls
| | Libint2ERI::Libint2ERI          :      0.000u      0.000s      0.424w    145 calls
| JK: AO2USO                        :      0.000u      0.000s      0.000w    360 calls
HF: Form F                          :      0.000u      0.000s      0.004w    360 calls
HF: Form D                          :      0.000u      0.000s      0.003w    360 calls
HF: DIIS                            :      0.000u      0.000s      0.357w    357 calls
| DIISManager::add_entry            :      0.000u      0.000s      0.006w    344 calls
| DIISManager::extrapolate          :      0.000u      0.000s      0.025w    344 calls
| | bMatrix setup                   :      0.000u      0.000s      0.003w    344 calls
| | bMatrix pseudoinverse           :      0.000u      0.000s      0.008w    344 calls
| | New vector                      :      0.000u      0.000s      0.012w    344 calls
HF: Form C                          :      0.000u      0.000s      0.289w    357 calls
Grad: V T Perturb                   :      0.000u      0.000s      1.950w     15 calls
Grad: S                             :      0.000u      0.000s      0.003w     15 calls
Grad: JK                            :      0.000u      0.000s      1.180w     15 calls
| Libint2ERI::Libint2ERI            :      0.000u      0.000s      0.291w     90 calls
Grad: XC                            :      0.000u      0.000s      0.000w     15 calls
Hess: XC                            :      0.000u      0.000s      0.000w      1 calls
Hess: V                             :      0.000u      0.000s      0.281w      1 calls
Hess: T                             :      0.000u      0.000s      0.001w      1 calls
Hess: S                             :      0.000u      0.000s      0.000w      1 calls
Hess: JK                            :      0.000u      0.000s      0.356w      1 calls
| Libint2ERI::Libint2ERI            :      0.000u      0.000s      0.020w      6 calls
Libint2ERI::Libint2ERI              :      0.000u      0.000s      0.025w      7 calls
JK: D                               :      0.000u      0.000s      0.001w     14 calls
JK: USO2AO                          :      0.000u      0.000s      0.001w     14 calls
JK: JK                              :      0.000u      0.000s      2.308w     14 calls
| Libint2ERI::Libint2ERI            :      0.000u      0.000s      0.043w     14 calls
JK: AO2USO                          :      0.000u      0.000s      0.000w     14 calls

**************************************************************************************

Host: HogEye

Timers On : Mon Feb  7 16:47:43 2022
Timers Off: Mon Feb  7 16:48:03 2022

Wall Time:       20.26 seconds

                                                       Time (seconds)
Module                                       User      System        Wall        Calls

--------------------------------------------------------------------------------------

**************************************************************************************

Host: HogEye

Timers On : Mon Feb  7 16:52:42 2022
Timers Off: Mon Feb  7 16:53:00 2022

Wall Time:       17.95 seconds

                                                       Time (seconds)
Module                                       User      System        Wall        Calls
DFH: sparsity prep                  :      0.000u      0.000s      0.073w     16 calls
Libint2ERI::Libint2ERI              :      0.000u      0.000s      0.897w    390 calls
DFH: initialize()                   :      0.000u      0.000s      0.452w     16 calls
DFH: AO Construction                :      0.000u      0.000s      0.078w     16 calls
DFH: AO-Met. Contraction            :      0.000u      0.000s      0.042w     16 calls
HF: Form core H                     :      0.000u      0.000s      0.088w     16 calls
HF: Form S/X                        :      0.000u      0.000s      0.010w     16 calls
HF: Guess                           :      0.000u      0.000s      0.151w     16 calls
SAD Guess                           :      0.000u      0.000s      0.148w      3 calls
HF: Form G                          :      0.000u      0.000s      4.616w    360 calls
JK: D                               :      0.000u      0.000s      0.005w    374 calls
JK: USO2AO                          :      0.000u      0.000s      0.003w    374 calls
JK: JK                              :      0.000u      0.000s      6.679w    374 calls
DFH: compute_JK()                   :      0.000u      0.000s      0.188w    215 calls
DFH: Grabbing AOs                   :      0.000u      0.000s      0.000w    215 calls
DFH: compute_J                      :      0.000u      0.000s      0.025w    215 calls
DFH: compute_K                      :      0.000u      0.000s      0.097w    215 calls
JK: AO2USO                          :      0.000u      0.000s      0.000w    374 calls
HF: Form F                          :      0.000u      0.000s      0.004w    360 calls
HF: Form D                          :      0.000u      0.000s      0.003w    360 calls
HF: DIIS                            :      0.000u      0.000s      0.376w    357 calls
DIISManager::add_entry              :      0.000u      0.000s      0.006w    344 calls
DIISManager::extrapolate            :      0.000u      0.000s      0.024w    344 calls
bMatrix setup                       :      0.000u      0.000s      0.003w    344 calls
bMatrix pseudoinverse               :      0.000u      0.000s      0.008w    344 calls
New vector                          :      0.000u      0.000s      0.012w    344 calls
HF: Form C                          :      0.000u      0.000s      0.297w    357 calls
Grad: V T Perturb                   :      0.000u      0.000s      2.109w     15 calls
Grad: S                             :      0.000u      0.000s      0.003w     15 calls
Grad: JK                            :      0.000u      0.000s      1.219w     15 calls
Grad: XC                            :      0.000u      0.000s      0.000w     15 calls
Hess: XC                            :      0.000u      0.000s      0.000w      1 calls
Hess: V                             :      0.000u      0.000s      0.273w      1 calls
Hess: T                             :      0.000u      0.000s      0.001w      1 calls
Hess: S                             :      0.000u      0.000s      0.000w      1 calls
Hess: JK                            :      0.000u      0.000s      0.325w      1 calls

--------------------------------------------------------------------------------------
DFH: sparsity prep                  :      0.000u      0.000s      0.073w     16 calls
| Libint2ERI::Libint2ERI            :      0.000u      0.000s      0.047w     16 calls
DFH: initialize()                   :      0.000u      0.000s      0.452w     16 calls
| Libint2ERI::Libint2ERI            :      0.000u      0.000s      0.044w    112 calls
| DFH: AO Construction              :      0.000u      0.000s      0.078w     16 calls
| DFH: AO-Met. Contraction          :      0.000u      0.000s      0.042w     16 calls
HF: Form core H                     :      0.000u      0.000s      0.088w     16 calls
HF: Form S/X                        :      0.000u      0.000s      0.010w     16 calls
HF: Guess                           :      0.000u      0.000s      0.151w     16 calls
| SAD Guess                         :      0.000u      0.000s      0.148w      3 calls
HF: Form G                          :      0.000u      0.000s      4.616w    360 calls
| JK: D                             :      0.000u      0.000s      0.003w    360 calls
| JK: USO2AO                        :      0.000u      0.000s      0.001w    360 calls
| JK: JK                            :      0.000u      0.000s      4.603w    360 calls
| | DFH: compute_JK()               :      0.000u      0.000s      0.188w    215 calls
| | | DFH: Grabbing AOs             :      0.000u      0.000s      0.000w    215 calls
| | | DFH: compute_J                :      0.000u      0.000s      0.025w    215 calls
| | | DFH: compute_K                :      0.000u      0.000s      0.097w    215 calls
| | Libint2ERI::Libint2ERI          :      0.000u      0.000s      0.423w    145 calls
| JK: AO2USO                        :      0.000u      0.000s      0.000w    360 calls
HF: Form F                          :      0.000u      0.000s      0.004w    360 calls
HF: Form D                          :      0.000u      0.000s      0.003w    360 calls
HF: DIIS                            :      0.000u      0.000s      0.376w    357 calls
| DIISManager::add_entry            :      0.000u      0.000s      0.006w    344 calls
| DIISManager::extrapolate          :      0.000u      0.000s      0.024w    344 calls
| | bMatrix setup                   :      0.000u      0.000s      0.003w    344 calls
| | bMatrix pseudoinverse           :      0.000u      0.000s      0.008w    344 calls
| | New vector                      :      0.000u      0.000s      0.012w    344 calls
HF: Form C                          :      0.000u      0.000s      0.297w    357 calls
Grad: V T Perturb                   :      0.000u      0.000s      2.109w     15 calls
Grad: S                             :      0.000u      0.000s      0.003w     15 calls
Grad: JK                            :      0.000u      0.000s      1.219w     15 calls
| Libint2ERI::Libint2ERI            :      0.000u      0.000s      0.308w     90 calls
Grad: XC                            :      0.000u      0.000s      0.000w     15 calls
Hess: XC                            :      0.000u      0.000s      0.000w      1 calls
Hess: V                             :      0.000u      0.000s      0.273w      1 calls
Hess: T                             :      0.000u      0.000s      0.001w      1 calls
Hess: S                             :      0.000u      0.000s      0.000w      1 calls
Hess: JK                            :      0.000u      0.000s      0.325w      1 calls
| Libint2ERI::Libint2ERI            :      0.000u      0.000s      0.020w      6 calls
Libint2ERI::Libint2ERI              :      0.000u      0.000s      0.020w      7 calls
JK: D                               :      0.000u      0.000s      0.001w     14 calls
JK: USO2AO                          :      0.000u      0.000s      0.002w     14 calls
JK: JK                              :      0.000u      0.000s      2.077w     14 calls
| Libint2ERI::Libint2ERI            :      0.000u      0.000s      0.036w     14 calls
JK: AO2USO                          :      0.000u      0.000s      0.000w     14 calls

**************************************************************************************

Host: HogEye

Timers On : Mon Feb  7 16:52:41 2022
Timers Off: Mon Feb  7 16:53:00 2022

Wall Time:       19.31 seconds

                                                       Time (seconds)
Module                                       User      System        Wall        Calls

--------------------------------------------------------------------------------------

**************************************************************************************

Host: HogEye

Timers On : Tue Feb  8 15:11:29 2022
Timers Off: Tue Feb  8 15:11:46 2022

Wall Time:       17.62 seconds

                                                       Time (seconds)
Module                                       User      System        Wall        Calls
DFH: sparsity prep                  :      0.000u      0.000s      0.102w     16 calls
Libint2ERI::Libint2ERI              :      0.000u      0.000s      0.927w    390 calls
DFH: initialize()                   :      0.000u      0.000s      0.472w     16 calls
DFH: AO Construction                :      0.000u      0.000s      0.077w     16 calls
DFH: AO-Met. Contraction            :      0.000u      0.000s      0.044w     16 calls
HF: Form core H                     :      0.000u      0.000s      0.079w     16 calls
HF: Form S/X                        :      0.000u      0.000s      0.012w     16 calls
HF: Guess                           :      0.000u      0.000s      0.169w     16 calls
SAD Guess                           :      0.000u      0.000s      0.165w      3 calls
HF: Form G                          :      0.000u      0.000s      4.495w    360 calls
JK: D                               :      0.000u      0.000s      0.005w    374 calls
JK: USO2AO                          :      0.000u      0.000s      0.002w    374 calls
JK: JK                              :      0.000u      0.000s      6.449w    374 calls
DFH: compute_JK()                   :      0.000u      0.000s      0.198w    215 calls
DFH: Grabbing AOs                   :      0.000u      0.000s      0.000w    215 calls
DFH: compute_J                      :      0.000u      0.000s      0.024w    215 calls
DFH: compute_K                      :      0.000u      0.000s      0.095w    215 calls
JK: AO2USO                          :      0.000u      0.000s      0.000w    374 calls
HF: Form F                          :      0.000u      0.000s      0.003w    360 calls
HF: Form D                          :      0.000u      0.000s      0.003w    360 calls
HF: DIIS                            :      0.000u      0.000s      0.355w    357 calls
DIISManager::add_entry              :      0.000u      0.000s      0.006w    344 calls
DIISManager::extrapolate            :      0.000u      0.000s      0.024w    344 calls
bMatrix setup                       :      0.000u      0.000s      0.003w    344 calls
bMatrix pseudoinverse               :      0.000u      0.000s      0.008w    344 calls
New vector                          :      0.000u      0.000s      0.012w    344 calls
HF: Form C                          :      0.000u      0.000s      0.285w    357 calls
Grad: V T Perturb                   :      0.000u      0.000s      1.945w     15 calls
Grad: S                             :      0.000u      0.000s      0.003w     15 calls
Grad: JK                            :      0.000u      0.000s      1.171w     15 calls
Grad: XC                            :      0.000u      0.000s      0.000w     15 calls
Hess: XC                            :      0.000u      0.000s      0.000w      1 calls
Hess: V                             :      0.000u      0.000s      0.287w      1 calls
Hess: T                             :      0.000u      0.000s      0.001w      1 calls
Hess: S                             :      0.000u      0.000s      0.000w      1 calls
Hess: JK                            :      0.000u      0.000s      0.344w      1 calls

--------------------------------------------------------------------------------------
DFH: sparsity prep                  :      0.000u      0.000s      0.102w     16 calls
| Libint2ERI::Libint2ERI            :      0.000u      0.000s      0.073w     16 calls
DFH: initialize()                   :      0.000u      0.000s      0.472w     16 calls
| Libint2ERI::Libint2ERI            :      0.000u      0.000s      0.044w    112 calls
| DFH: AO Construction              :      0.000u      0.000s      0.077w     16 calls
| DFH: AO-Met. Contraction          :      0.000u      0.000s      0.044w     16 calls
HF: Form core H                     :      0.000u      0.000s      0.079w     16 calls
HF: Form S/X                        :      0.000u      0.000s      0.012w     16 calls
HF: Guess                           :      0.000u      0.000s      0.169w     16 calls
| SAD Guess                         :      0.000u      0.000s      0.165w      3 calls
HF: Form G                          :      0.000u      0.000s      4.495w    360 calls
| JK: D                             :      0.000u      0.000s      0.004w    360 calls
| JK: USO2AO                        :      0.000u      0.000s      0.001w    360 calls
| JK: JK                            :      0.000u      0.000s      4.482w    360 calls
| | DFH: compute_JK()               :      0.000u      0.000s      0.198w    215 calls
| | | DFH: Grabbing AOs             :      0.000u      0.000s      0.000w    215 calls
| | | DFH: compute_J                :      0.000u      0.000s      0.024w    215 calls
| | | DFH: compute_K                :      0.000u      0.000s      0.095w    215 calls
| | Libint2ERI::Libint2ERI          :      0.000u      0.000s      0.426w    145 calls
| JK: AO2USO                        :      0.000u      0.000s      0.000w    360 calls
HF: Form F                          :      0.000u      0.000s      0.003w    360 calls
HF: Form D                          :      0.000u      0.000s      0.003w    360 calls
HF: DIIS                            :      0.000u      0.000s      0.355w    357 calls
| DIISManager::add_entry            :      0.000u      0.000s      0.006w    344 calls
| DIISManager::extrapolate          :      0.000u      0.000s      0.024w    344 calls
| | bMatrix setup                   :      0.000u      0.000s      0.003w    344 calls
| | bMatrix pseudoinverse           :      0.000u      0.000s      0.008w    344 calls
| | New vector                      :      0.000u      0.000s      0.012w    344 calls
HF: Form C                          :      0.000u      0.000s      0.285w    357 calls
Grad: V T Perturb                   :      0.000u      0.000s      1.945w     15 calls
Grad: S                             :      0.000u      0.000s      0.003w     15 calls
Grad: JK                            :      0.000u      0.000s      1.171w     15 calls
| Libint2ERI::Libint2ERI            :      0.000u      0.000s      0.298w     90 calls
Grad: XC                            :      0.000u      0.000s      0.000w     15 calls
Hess: XC                            :      0.000u      0.000s      0.000w      1 calls
Hess: V                             :      0.000u      0.000s      0.287w      1 calls
Hess: T                             :      0.000u      0.000s      0.001w      1 calls
Hess: S                             :      0.000u      0.000s      0.000w      1 calls
Hess: JK                            :      0.000u      0.000s      0.344w      1 calls
| Libint2ERI::Libint2ERI            :      0.000u      0.000s      0.023w      6 calls
Libint2ERI::Libint2ERI              :      0.000u      0.000s      0.026w      7 calls
JK: D                               :      0.000u      0.000s      0.001w     14 calls
JK: USO2AO                          :      0.000u      0.000s      0.001w     14 calls
JK: JK                              :      0.000u      0.000s      1.967w     14 calls
| Libint2ERI::Libint2ERI            :      0.000u      0.000s      0.037w     14 calls
JK: AO2USO                          :      0.000u      0.000s      0.000w     14 calls

**************************************************************************************

Host: HogEye

Timers On : Tue Feb  8 15:11:04 2022
Timers Off: Tue Feb  8 15:11:47 2022

Wall Time:       42.93 seconds

                                                       Time (seconds)
Module                                       User      System        Wall        Calls

--------------------------------------------------------------------------------------

**************************************************************************************

Host: HogEye

Timers On : Tue Feb  8 16:21:12 2022
Timers Off: Tue Feb  8 16:21:13 2022

Wall Time:        1.12 seconds

                                                       Time (seconds)
Module                                       User      System        Wall        Calls

--------------------------------------------------------------------------------------

**************************************************************************************

Host: HogEye

Timers On : Tue Feb  8 16:23:52 2022
Timers Off: Tue Feb  8 16:23:53 2022

Wall Time:        1.13 seconds

                                                       Time (seconds)
Module                                       User      System        Wall        Calls

--------------------------------------------------------------------------------------

**************************************************************************************

Host: HogEye

Timers On : Tue Feb  8 16:25:29 2022
Timers Off: Tue Feb  8 16:26:20 2022

Wall Time:       50.84 seconds

                                                       Time (seconds)
Module                                       User      System        Wall        Calls
DFH: sparsity prep                  :      0.000u      0.000s      0.251w     43 calls
Libint2ERI::Libint2ERI              :      0.000u      0.000s      1.969w    817 calls
DFH: initialize()                   :      0.000u      0.000s      1.579w     43 calls
DFH: AO Construction                :      0.000u      0.000s      0.384w     43 calls
DFH: AO-Met. Contraction            :      0.000u      0.000s      0.195w     43 calls
HF: Form core H                     :      0.000u      0.000s      0.365w     43 calls
HF: Form S/X                        :      0.000u      0.000s      0.032w     43 calls
HF: Guess                           :      0.000u      0.000s      2.219w     43 calls
SAD Guess                           :      0.000u      0.000s      2.171w     43 calls
HF: Form G                          :      0.000u      0.000s     18.614w   1032 calls
JK: D                               :      0.000u      0.000s      0.010w   1032 calls
JK: USO2AO                          :      0.000u      0.000s      0.004w   1032 calls
JK: JK                              :      0.000u      0.000s     18.573w   1032 calls
DFH: compute_JK()                   :      0.000u      0.000s      0.797w    645 calls
DFH: Grabbing AOs                   :      0.000u      0.000s      0.000w    645 calls
DFH: compute_J                      :      0.000u      0.000s      0.109w    645 calls
DFH: compute_K                      :      0.000u      0.000s      0.443w    645 calls
JK: AO2USO                          :      0.000u      0.000s      0.000w   1032 calls
HF: Form F                          :      0.000u      0.000s      0.013w   1032 calls
HF: Form D                          :      0.000u      0.000s      0.008w   1032 calls
HF: DIIS                            :      0.000u      0.000s      1.030w    989 calls
DIISManager::add_entry              :      0.000u      0.000s      0.019w    989 calls
DIISManager::extrapolate            :      0.000u      0.000s      0.075w    989 calls
bMatrix setup                       :      0.000u      0.000s      0.010w    989 calls
bMatrix pseudoinverse               :      0.000u      0.000s      0.025w    989 calls
New vector                          :      0.000u      0.000s      0.037w    989 calls
HF: Form C                          :      0.000u      0.000s      0.793w    989 calls
Grad: V T Perturb                   :      0.000u      0.000s      3.520w     43 calls
Grad: S                             :      0.000u      0.000s      0.010w     43 calls
Grad: JK                            :      0.000u      0.000s      5.811w     43 calls
Grad: XC                            :      0.000u      0.000s      0.000w     43 calls

--------------------------------------------------------------------------------------
DFH: sparsity prep                  :      0.000u      0.000s      0.251w     43 calls
| Libint2ERI::Libint2ERI            :      0.000u      0.000s      0.132w     43 calls
DFH: initialize()                   :      0.000u      0.000s      1.579w     43 calls
| Libint2ERI::Libint2ERI            :      0.000u      0.000s      0.135w    215 calls
| DFH: AO Construction              :      0.000u      0.000s      0.384w     43 calls
| DFH: AO-Met. Contraction          :      0.000u      0.000s      0.195w     43 calls
HF: Form core H                     :      0.000u      0.000s      0.365w     43 calls
HF: Form S/X                        :      0.000u      0.000s      0.032w     43 calls
HF: Guess                           :      0.000u      0.000s      2.219w     43 calls
| SAD Guess                         :      0.000u      0.000s      2.171w     43 calls
HF: Form G                          :      0.000u      0.000s     18.614w   1032 calls
| JK: D                             :      0.000u      0.000s      0.010w   1032 calls
| JK: USO2AO                        :      0.000u      0.000s      0.004w   1032 calls
| JK: JK                            :      0.000u      0.000s     18.573w   1032 calls
| | DFH: compute_JK()               :      0.000u      0.000s      0.797w    645 calls
| | | DFH: Grabbing AOs             :      0.000u      0.000s      0.000w    645 calls
| | | DFH: compute_J                :      0.000u      0.000s      0.109w    645 calls
| | | DFH: compute_K                :      0.000u      0.000s      0.443w    645 calls
| | Libint2ERI::Libint2ERI          :      0.000u      0.000s      1.102w    387 calls
| JK: AO2USO                        :      0.000u      0.000s      0.000w   1032 calls
HF: Form F                          :      0.000u      0.000s      0.013w   1032 calls
HF: Form D                          :      0.000u      0.000s      0.008w   1032 calls
HF: DIIS                            :      0.000u      0.000s      1.030w    989 calls
| DIISManager::add_entry            :      0.000u      0.000s      0.019w    989 calls
| DIISManager::extrapolate          :      0.000u      0.000s      0.075w    989 calls
| | bMatrix setup                   :      0.000u      0.000s      0.010w    989 calls
| | bMatrix pseudoinverse           :      0.000u      0.000s      0.025w    989 calls
| | New vector                      :      0.000u      0.000s      0.037w    989 calls
HF: Form C                          :      0.000u      0.000s      0.793w    989 calls
Grad: V T Perturb                   :      0.000u      0.000s      3.520w     43 calls
Grad: S                             :      0.000u      0.000s      0.010w     43 calls
Grad: JK                            :      0.000u      0.000s      5.811w     43 calls
| Libint2ERI::Libint2ERI            :      0.000u      0.000s      0.600w    172 calls
Grad: XC                            :      0.000u      0.000s      0.000w     43 calls

**************************************************************************************

Host: HogEye

Timers On : Wed Feb  9 11:11:42 2022
Timers Off: Wed Feb  9 11:11:44 2022

Wall Time:        2.00 seconds

                                                       Time (seconds)
Module                                       User      System        Wall        Calls

--------------------------------------------------------------------------------------

**************************************************************************************

Host: HogEye

Timers On : Wed Feb  9 11:12:52 2022
Timers Off: Wed Feb  9 11:12:53 2022

Wall Time:        0.66 seconds

                                                       Time (seconds)
Module                                       User      System        Wall        Calls

--------------------------------------------------------------------------------------

**************************************************************************************

Host: HogEye

Timers On : Wed Feb  9 11:14:47 2022
Timers Off: Wed Feb  9 11:14:47 2022

Wall Time:        0.65 seconds

                                                       Time (seconds)
Module                                       User      System        Wall        Calls

--------------------------------------------------------------------------------------

**************************************************************************************

Host: HogEye

Timers On : Wed Feb  9 11:26:50 2022
Timers Off: Wed Feb  9 11:27:24 2022

Wall Time:       33.75 seconds

                                                       Time (seconds)
Module                                       User      System        Wall        Calls
DFH: sparsity prep                  :      0.000u      0.000s      0.589w     43 calls
Libint2ERI::Libint2ERI              :      0.000u      0.000s      1.352w    817 calls
DFH: initialize()                   :      0.000u      0.000s      0.885w     43 calls
DFH: AO Construction                :      0.000u      0.000s      0.202w     43 calls
DFH: AO-Met. Contraction            :      0.000u      0.000s      0.113w     43 calls
HF: Form core H                     :      0.000u      0.000s      0.130w     43 calls
HF: Form S/X                        :      0.000u      0.000s      0.019w     43 calls
HF: Guess                           :      0.000u      0.000s      1.439w     43 calls
SAD Guess                           :      0.000u      0.000s      1.408w     43 calls
HF: Form G                          :      0.000u      0.000s     11.641w   1032 calls
JK: D                               :      0.000u      0.000s      0.009w   1032 calls
JK: USO2AO                          :      0.000u      0.000s      0.003w   1032 calls
JK: JK                              :      0.000u      0.000s     11.604w   1032 calls
DFH: compute_JK()                   :      0.000u      0.000s      0.496w    645 calls
DFH: Grabbing AOs                   :      0.000u      0.000s      0.000w    645 calls
DFH: compute_J                      :      0.000u      0.000s      0.117w    645 calls
DFH: compute_K                      :      0.000u      0.000s      0.207w    645 calls
JK: AO2USO                          :      0.000u      0.000s      0.000w   1032 calls
HF: Form F                          :      0.000u      0.000s      0.009w   1032 calls
HF: Form D                          :      0.000u      0.000s      0.007w   1032 calls
HF: DIIS                            :      0.000u      0.000s      0.733w    989 calls
DIISManager::add_entry              :      0.000u      0.000s      0.017w    989 calls
DIISManager::extrapolate            :      0.000u      0.000s      0.067w    989 calls
bMatrix setup                       :      0.000u      0.000s      0.010w    989 calls
bMatrix pseudoinverse               :      0.000u      0.000s      0.025w    989 calls
[...]
Module                                       User      System        Wall        Calls

--------------------------------------------------------------------------------------

**************************************************************************************

Host: HogEye

Timers On : Wed Feb  9 15:45:04 2022
Timers Off: Wed Feb  9 15:45:04 2022

Wall Time:        0.70 seconds

                                                       Time (seconds)
Module                                       User      System        Wall        Calls

--------------------------------------------------------------------------------------

**************************************************************************************

Host: HogEye

Timers On : Wed Feb  9 15:48:00 2022
Timers Off: Wed Feb  9 15:48:34 2022

Wall Time:       33.76 seconds

                                                       Time (seconds)
Module                                       User      System        Wall        Calls
DFH: sparsity prep                  :      0.000u      0.000s      0.154w     43 calls
Libint2ERI::Libint2ERI              :      0.000u      0.000s      1.363w    817 calls
DFH: initialize()                   :      0.000u      0.000s      0.865w     43 calls
DFH: AO Construction                :      0.000u      0.000s      0.199w     43 calls
DFH: AO-Met. Contraction            :      0.000u      0.000s      0.110w     43 calls
HF: Form core H                     :      0.000u      0.000s      0.122w     43 calls
HF: Form S/X                        :      0.000u      0.000s      0.019w     43 calls
HF: Guess                           :      0.000u      0.000s      1.440w     43 calls
SAD Guess                           :      0.000u      0.000s      1.409w     43 calls
HF: Form G                          :      0.000u      0.000s     11.888w   1032 calls
JK: D                               :      0.000u      0.000s      0.009w   1032 calls
JK: USO2AO                          :      0.000u      0.000s      0.003w   1032 calls
JK: JK                              :      0.000u      0.000s     11.850w   1032 calls
DFH: compute_JK()                   :      0.000u      0.000s      0.541w    645 calls
DFH: Grabbing AOs                   :      0.000u      0.000s      0.000w    645 calls
DFH: compute_J                      :      0.000u      0.000s      0.133w    645 calls
DFH: compute_K                      :      0.000u      0.000s      0.227w    645 calls
JK: AO2USO                          :      0.000u      0.000s      0.000w   1032 calls
HF: Form F                          :      0.000u      0.000s      0.009w   1032 calls
HF: Form D                          :      0.000u      0.000s      0.007w   1032 calls
HF: DIIS                            :      0.000u      0.000s      0.748w    989 calls
DIISManager::add_entry              :      0.000u      0.000s      0.017w    989 calls
DIISManager::extrapolate            :      0.000u      0.000s      0.071w    989 calls
bMatrix setup                       :      0.000u      0.000s      0.012w    989 calls
bMatrix pseudoinverse               :      0.000u      0.000s      0.027w    989 calls
New vector                          :      0.000u      0.000s      0.030w    989 calls
HF: Form C                          :      0.000u      0.000s      0.572w    989 calls
Grad: V T Perturb                   :      0.000u      0.000s      2.657w     43 calls
Grad: S                             :      0.000u      0.000s      0.005w     43 calls
Grad: JK                            :      0.000u      0.000s      3.200w     43 calls
Grad: XC                            :      0.000u      0.000s      0.000w     43 calls

--------------------------------------------------------------------------------------
DFH: sparsity prep                  :      0.000u      0.000s      0.154w     43 calls
| Libint2ERI::Libint2ERI            :      0.000u      0.000s      0.102w     43 calls
DFH: initialize()                   :      0.000u      0.000s      0.865w     43 calls
| Libint2ERI::Libint2ERI            :      0.000u      0.000s      0.077w    215 calls
| DFH: AO Construction              :      0.000u      0.000s      0.199w     43 calls
| DFH: AO-Met. Contraction          :      0.000u      0.000s      0.110w     43 calls
HF: Form core H                     :      0.000u      0.000s      0.122w     43 calls
HF: Form S/X                        :      0.000u      0.000s      0.019w     43 calls
HF: Guess                           :      0.000u      0.000s      1.440w     43 calls
| SAD Guess                         :      0.000u      0.000s      1.409w     43 calls
HF: Form G                          :      0.000u      0.000s     11.888w   1032 calls
| JK: D                             :      0.000u      0.000s      0.009w   1032 calls
| JK: USO2AO                        :      0.000u      0.000s      0.003w   1032 calls
| JK: JK                            :      0.000u      0.000s     11.850w   1032 calls
| | DFH: compute_JK()               :      0.000u      0.000s      0.541w    645 calls
| | | DFH: Grabbing AOs             :      0.000u      0.000s      0.000w    645 calls
| | | DFH: compute_J                :      0.000u      0.000s      0.133w    645 calls
| | | DFH: compute_K                :      0.000u      0.000s      0.227w    645 calls
| | Libint2ERI::Libint2ERI          :      0.000u      0.000s      0.797w    387 calls
| JK: AO2USO                        :      0.000u      0.000s      0.000w   1032 calls
HF: Form F                          :      0.000u      0.000s      0.009w   1032 calls
HF: Form D                          :      0.000u      0.000s      0.007w   1032 calls
HF: DIIS                            :      0.000u      0.000s      0.748w    989 calls
| DIISManager::add_entry            :      0.000u      0.000s      0.017w    989 calls
| DIISManager::extrapolate          :      0.000u      0.000s      0.071w    989 calls
| | bMatrix setup                   :      0.000u      0.000s      0.012w    989 calls
| | bMatrix pseudoinverse           :      0.000u      0.000s      0.027w    989 calls
| | New vector                      :      0.000u      0.000s      0.030w    989 calls
HF: Form C                          :      0.000u      0.000s      0.572w    989 calls
Grad: V T Perturb                   :      0.000u      0.000s      2.657w     43 calls
Grad: S                             :      0.000u      0.000s      0.005w     43 calls
Grad: JK                            :      0.000u      0.000s      3.200w     43 calls
| Libint2ERI::Libint2ERI            :      0.000u      0.000s      0.386w    172 calls
Grad: XC                            :      0.000u      0.000s      0.000w     43 calls

**************************************************************************************

Host: HogEye

Timers On : Wed Feb  9 15:55:44 2022
Timers Off: Wed Feb  9 15:55:44 2022

Wall Time:        0.69 seconds

                                                       Time (seconds)
Module                                       User      System        Wall        Calls

--------------------------------------------------------------------------------------

**************************************************************************************

Host: HogEye

Timers On : Wed Feb  9 15:58:01 2022
Timers Off: Wed Feb  9 15:58:35 2022

Wall Time:       33.82 seconds

                                                       Time (seconds)
Module                                       User      System        Wall        Calls
DFH: sparsity prep                  :      0.000u      0.000s      0.146w     43 calls
Libint2ERI::Libint2ERI              :      0.000u      0.000s      1.359w    817 calls
DFH: initialize()                   :      0.000u      0.000s      0.882w     43 calls
DFH: AO Construction                :      0.000u      0.000s      0.217w     43 calls
DFH: AO-Met. Contraction            :      0.000u      0.000s      0.114w     43 calls
HF: Form core H                     :      0.000u      0.000s      0.122w     43 calls
HF: Form S/X                        :      0.000u      0.000s      0.018w     43 calls
HF: Guess                           :      0.000u      0.000s      1.436w     43 calls
SAD Guess                           :      0.000u      0.000s      1.404w     43 calls
HF: Form G                          :      0.000u      0.000s     11.823w   1032 calls
JK: D                               :      0.000u      0.000s      0.009w   1032 calls
JK: USO2AO                          :      0.000u      0.000s      0.003w   1032 calls
JK: JK                              :      0.000u      0.000s     11.785w   1032 calls
DFH: compute_JK()                   :      0.000u      0.000s      0.525w    645 calls
DFH: Grabbing AOs                   :      0.000u      0.000s      0.000w    645 calls
DFH: compute_J                      :      0.000u      0.000s      0.131w    645 calls
DFH: compute_K                      :      0.000u      0.000s      0.216w    645 calls
JK: AO2USO                          :      0.000u      0.000s      0.000w   1032 calls
HF: Form F                          :      0.000u      0.000s      0.010w   1032 calls
HF: Form D                          :      0.000u      0.000s      0.007w   1032 calls
HF: DIIS                            :      0.000u      0.000s      0.734w    989 calls
DIISManager::add_entry              :      0.000u      0.000s      0.017w    989 calls
DIISManager::extrapolate            :      0.000u      0.000s      0.069w    989 calls
bMatrix setup                       :      0.000u      0.000s      0.011w    989 calls
bMatrix pseudoinverse               :      0.000u      0.000s      0.026w    989 calls
New vector                          :      0.000u      0.000s      0.030w    989 calls
HF: Form C                          :      0.000u      0.000s      0.568w    989 calls
Grad: V T Perturb                   :      0.000u      0.000s      2.641w     43 calls
Grad: S                             :      0.000u      0.000s      0.005w     43 calls
Grad: JK                            :      0.000u      0.000s      3.446w     43 calls
Grad: XC                            :      0.000u      0.000s      0.000w     43 calls

--------------------------------------------------------------------------------------
DFH: sparsity prep                  :      0.000u      0.000s      0.146w     43 calls
| Libint2ERI::Libint2ERI            :      0.000u      0.000s      0.092w     43 calls
DFH: initialize()                   :      0.000u      0.000s      0.882w     43 calls
| Libint2ERI::Libint2ERI            :      0.000u      0.000s      0.077w    215 calls
| DFH: AO Construction              :      0.000u      0.000s      0.217w     43 calls
| DFH: AO-Met. Contraction          :      0.000u      0.000s      0.114w     43 calls
HF: Form core H                     :      0.000u      0.000s      0.122w     43 calls
HF: Form S/X                        :      0.000u      0.000s      0.018w     43 calls
HF: Guess                           :      0.000u      0.000s      1.436w     43 calls
| SAD Guess                         :      0.000u      0.000s      1.404w     43 calls
HF: Form G                          :      0.000u      0.000s     11.823w   1032 calls
| JK: D                             :      0.000u      0.000s      0.009w   1032 calls
| JK: USO2AO                        :      0.000u      0.000s      0.003w   1032 calls
| JK: JK                            :      0.000u      0.000s     11.785w   1032 calls
| | DFH: compute_JK()               :      0.000u      0.000s      0.525w    645 calls
| | | DFH: Grabbing AOs             :      0.000u      0.000s      0.000w    645 calls
| | | DFH: compute_J                :      0.000u      0.000s      0.131w    645 calls
| | | DFH: compute_K                :      0.000u      0.000s      0.216w    645 calls
| | Libint2ERI::Libint2ERI          :      0.000u      0.000s      0.804w    387 calls
| JK: AO2USO                        :      0.000u      0.000s      0.000w   1032 calls
HF: Form F                          :      0.000u      0.000s      0.010w   1032 calls
HF: Form D                          :      0.000u      0.000s      0.007w   1032 calls
HF: DIIS                            :      0.000u      0.000s      0.734w    989 calls
| DIISManager::add_entry            :      0.000u      0.000s      0.017w    989 calls
| DIISManager::extrapolate          :      0.000u      0.000s      0.069w    989 calls
| | bMatrix setup                   :      0.000u      0.000s      0.011w    989 calls
| | bMatrix pseudoinverse           :      0.000u      0.000s      0.026w    989 calls
| | New vector                      :      0.000u      0.000s      0.030w    989 calls
HF: Form C                          :      0.000u      0.000s      0.568w    989 calls
Grad: V T Perturb                   :      0.000u      0.000s      2.641w     43 calls
Grad: S                             :      0.000u      0.000s      0.005w     43 calls
Grad: JK                            :      0.000u      0.000s      3.446w     43 calls
| Libint2ERI::Libint2ERI            :      0.000u      0.000s      0.387w    172 calls
Grad: XC                            :      0.000u      0.000s      0.000w     43 calls

**************************************************************************************

Host: HogEye

Timers On : Wed Feb  9 16:05:35 2022
Timers Off: Wed Feb  9 16:05:36 2022

Wall Time:        0.82 seconds

                                                       Time (seconds)
Module                                       User      System        Wall        Calls

--------------------------------------------------------------------------------------

**************************************************************************************

Host: HogEye

Timers On : Wed Feb  9 16:08:41 2022
Timers Off: Wed Feb  9 16:09:14 2022

Wall Time:       32.99 seconds

                                                       Time (seconds)
Module                                       User      System        Wall        Calls
DFH: sparsity prep                  :      0.000u      0.000s      0.184w     43 calls
Libint2ERI::Libint2ERI              :      0.000u      0.000s      1.326w    817 calls
DFH: initialize()                   :      0.000u      0.000s      0.841w     43 calls
DFH: AO Construction                :      0.000u      0.000s      0.198w     43 calls
DFH: AO-Met. Contraction            :      0.000u      0.000s      0.109w     43 calls
HF: Form core H                     :      0.000u      0.000s      0.120w     43 calls
HF: Form S/X                        :      0.000u      0.000s      0.018w     43 calls
HF: Guess                           :      0.000u      0.000s      1.326w     43 calls
SAD Guess                           :      0.000u      0.000s      1.296w     43 calls
HF: Form G                          :      0.000u      0.000s     11.149w   1032 calls
JK: D                               :      0.000u      0.000s      0.007w   1032 calls
JK: USO2AO                          :      0.000u      0.000s      0.002w   1032 calls
JK: JK                              :      0.000u      0.000s     11.121w   1032 calls
DFH: compute_JK()                   :      0.000u      0.000s      0.375w    645 calls
DFH: Grabbing AOs                   :      0.000u      0.000s      0.000w    645 calls
DFH: compute_J                      :      0.000u      0.000s      0.061w    645 calls
DFH: compute_K                      :      0.000u      0.000s      0.163w    645 calls
JK: AO2USO                          :      0.000u      0.000s      0.000w   1032 calls
HF: Form F                          :      0.000u      0.000s      0.007w   1032 calls
HF: Form D                          :      0.000u      0.000s      0.005w   1032 calls
HF: DIIS                            :      0.000u      0.000s      0.695w    989 calls
DIISManager::add_entry              :      0.000u      0.000s      0.013w    989 calls
DIISManager::extrapolate            :      0.000u      0.000s      0.052w    989 calls
bMatrix setup                       :      0.000u      0.000s      0.007w    989 calls
bMatrix pseudoinverse               :      0.000u      0.000s      0.018w    989 calls
New vector                          :      0.000u      0.000s      0.025w    989 calls
HF: Form C                          :      0.000u      0.000s      0.530w    989 calls
Grad: V T Perturb                   :      0.000u      0.000s      2.684w     43 calls
Grad: S                             :      0.000u      0.000s      0.005w     43 calls
Grad: JK                            :      0.000u      0.000s      3.737w     43 calls
Grad: XC                            :      0.000u      0.000s      0.000w     43 calls

--------------------------------------------------------------------------------------
DFH: sparsity prep                  :      0.000u      0.000s      0.184w     43 calls
| Libint2ERI::Libint2ERI            :      0.000u      0.000s      0.088w     43 calls
DFH: initialize()                   :      0.000u      0.000s      0.841w     43 calls
| Libint2ERI::Libint2ERI            :      0.000u      0.000s      0.074w    215 calls
| DFH: AO Construction              :      0.000u      0.000s      0.198w     43 calls
| DFH: AO-Met. Contraction          :      0.000u      0.000s      0.109w     43 calls
HF: Form core H                     :      0.000u      0.000s      0.120w     43 calls
HF: Form S/X                        :      0.000u      0.000s      0.018w     43 calls
HF: Guess                           :      0.000u      0.000s      1.326w     43 calls
| SAD Guess                         :      0.000u      0.000s      1.296w     43 calls
HF: Form G                          :      0.000u      0.000s     11.149w   1032 calls
| JK: D                             :      0.000u      0.000s      0.007w   1032 calls
| JK: USO2AO                        :      0.000u      0.000s      0.002w   1032 calls
| JK: JK                            :      0.000u      0.000s     11.121w   1032 calls
| | DFH: compute_JK()               :      0.000u      0.000s      0.375w    645 calls
| | | DFH: Grabbing AOs             :      0.000u      0.000s      0.000w    645 calls
| | | DFH: compute_J                :      0.000u      0.000s      0.061w    645 calls
| | | DFH: compute_K                :      0.000u      0.000s      0.163w    645 calls
| | Libint2ERI::Libint2ERI          :      0.000u      0.000s      0.764w    387 calls
| JK: AO2USO                        :      0.000u      0.000s      0.000w   1032 calls
HF: Form F                          :      0.000u      0.000s      0.007w   1032 calls
HF: Form D                          :      0.000u      0.000s      0.005w   1032 calls
HF: DIIS                            :      0.000u      0.000s      0.695w    989 calls
| DIISManager::add_entry            :      0.000u      0.000s      0.013w    989 calls
| DIISManager::extrapolate          :      0.000u      0.000s      0.052w    989 calls
| | bMatrix setup                   :      0.000u      0.000s      0.007w    989 calls
| | bMatrix pseudoinverse           :      0.000u      0.000s      0.018w    989 calls
| | New vector                      :      0.000u      0.000s      0.025w    989 calls
HF: Form C                          :      0.000u      0.000s      0.530w    989 calls
Grad: V T Perturb                   :      0.000u      0.000s      2.684w     43 calls
Grad: S                             :      0.000u      0.000s      0.005w     43 calls
Grad: JK                            :      0.000u      0.000s      3.737w     43 calls
| Libint2ERI::Libint2ERI            :      0.000u      0.000s      0.399w    172 calls
Grad: XC                            :      0.000u      0.000s      0.000w     43 calls

**************************************************************************************
